# LAMMPS data file made with a very cool script by Daniele Rapetti
309 atoms
1 atom types
-40 40 xlo xhi
-40 40 ylo yhi
-40 40 zlo zhi

Masses

1 196.96655  # Au

Atoms  # atomic

1 1 11.52 0 0
2 1 8.64 2.88 0
3 1 11.52 2.88 0
4 1 14.4 2.88 0
5 1 5.76 5.76 0
6 1 8.64 5.76 0
7 1 11.52 5.76 0
8 1 14.4 5.76 0
9 1 17.28 5.76 0
10 1 2.88 8.64 0
11 1 5.76 8.64 0
12 1 8.64 8.64 0
13 1 11.52 8.64 0
14 1 14.4 8.64 0
15 1 17.28 8.64 0
16 1 20.16 8.64 0
17 1 0 11.52 0
18 1 2.88 11.52 0
19 1 5.76 11.52 0
20 1 8.64 11.52 0
21 1 11.52 11.52 0
22 1 14.4 11.52 0
23 1 17.28 11.52 0
24 1 20.16 11.52 0
25 1 23.04 11.52 0
26 1 2.88 14.4 0
27 1 5.76 14.4 0
28 1 8.64 14.4 0
29 1 11.52 14.4 0
30 1 14.4 14.4 0
31 1 17.28 14.4 0
32 1 20.16 14.4 0
33 1 5.76 17.28 0
34 1 8.64 17.28 0
35 1 11.52 17.28 0
36 1 14.4 17.28 0
37 1 17.28 17.28 0
38 1 8.64 20.16 0
39 1 11.52 20.16 0
40 1 14.4 20.16 0
41 1 11.52 23.04 0
42 1 10.08 1.44 2.03646753
43 1 10.08 1.44 -2.03646753
44 1 12.96 1.44 2.03646753
45 1 12.96 1.44 -2.03646753
46 1 7.2 4.32 2.03646753
47 1 7.2 4.32 -2.03646753
48 1 10.08 4.32 2.03646753
49 1 10.08 4.32 -2.03646753
50 1 12.96 4.32 2.03646753
51 1 12.96 4.32 -2.03646753
52 1 15.84 4.32 2.03646753
53 1 15.84 4.32 -2.03646753
54 1 4.32 7.2 2.03646753
55 1 4.32 7.2 -2.03646753
56 1 7.2 7.2 2.03646753
57 1 7.2 7.2 -2.03646753
58 1 10.08 7.2 2.03646753
59 1 10.08 7.2 -2.03646753
60 1 12.96 7.2 2.03646753
61 1 12.96 7.2 -2.03646753
62 1 15.84 7.2 2.03646753
63 1 15.84 7.2 -2.03646753
64 1 18.72 7.2 2.03646753
65 1 18.72 7.2 -2.03646753
66 1 1.44 10.08 2.03646753
67 1 1.44 10.08 -2.03646753
68 1 4.32 10.08 2.03646753
69 1 4.32 10.08 -2.03646753
70 1 7.2 10.08 2.03646753
71 1 7.2 10.08 -2.03646753
72 1 10.08 10.08 2.03646753
73 1 10.08 10.08 -2.03646753
74 1 12.96 10.08 2.03646753
75 1 12.96 10.08 -2.03646753
76 1 15.84 10.08 2.03646753
77 1 15.84 10.08 -2.03646753
78 1 18.72 10.08 2.03646753
79 1 18.72 10.08 -2.03646753
80 1 21.6 10.08 2.03646753
81 1 21.6 10.08 -2.03646753
82 1 1.44 12.96 2.03646753
83 1 1.44 12.96 -2.03646753
84 1 4.32 12.96 2.03646753
85 1 4.32 12.96 -2.03646753
86 1 7.2 12.96 2.03646753
87 1 7.2 12.96 -2.03646753
88 1 10.08 12.96 2.03646753
89 1 10.08 12.96 -2.03646753
90 1 12.96 12.96 2.03646753
91 1 12.96 12.96 -2.03646753
92 1 15.84 12.96 2.03646753
93 1 15.84 12.96 -2.03646753
94 1 18.72 12.96 2.03646753
95 1 18.72 12.96 -2.03646753
96 1 21.6 12.96 2.03646753
97 1 21.6 12.96 -2.03646753
98 1 4.32 15.84 2.03646753
99 1 4.32 15.84 -2.03646753
100 1 7.2 15.84 2.03646753
101 1 7.2 15.84 -2.03646753
102 1 10.08 15.84 2.03646753
103 1 10.08 15.84 -2.03646753
104 1 12.96 15.84 2.03646753
105 1 12.96 15.84 -2.03646753
106 1 15.84 15.84 2.03646753
107 1 15.84 15.84 -2.03646753
108 1 18.72 15.84 2.03646753
109 1 18.72 15.84 -2.03646753
110 1 7.2 18.72 2.03646753
111 1 7.2 18.72 -2.03646753
112 1 10.08 18.72 2.03646753
113 1 10.08 18.72 -2.03646753
114 1 12.96 18.72 2.03646753
115 1 12.96 18.72 -2.03646753
116 1 15.84 18.72 2.03646753
117 1 15.84 18.72 -2.03646753
118 1 10.08 21.6 2.03646753
119 1 10.08 21.6 -2.03646753
120 1 12.96 21.6 2.03646753
121 1 12.96 21.6 -2.03646753
122 1 8.64 2.88 4.07293506
123 1 8.64 2.88 -4.07293506
124 1 11.52 2.88 4.07293506
125 1 11.52 2.88 -4.07293506
126 1 14.4 2.88 4.07293506
127 1 14.4 2.88 -4.07293506
128 1 5.76 5.76 4.07293506
129 1 5.76 5.76 -4.07293506
130 1 8.64 5.76 4.07293506
131 1 8.64 5.76 -4.07293506
132 1 11.52 5.76 4.07293506
133 1 11.52 5.76 -4.07293506
134 1 14.4 5.76 4.07293506
135 1 14.4 5.76 -4.07293506
136 1 17.28 5.76 4.07293506
137 1 17.28 5.76 -4.07293506
138 1 2.88 8.64 4.07293506
139 1 2.88 8.64 -4.07293506
140 1 5.76 8.64 4.07293506
141 1 5.76 8.64 -4.07293506
142 1 8.64 8.64 4.07293506
143 1 8.64 8.64 -4.07293506
144 1 11.52 8.64 4.07293506
145 1 11.52 8.64 -4.07293506
146 1 14.4 8.64 4.07293506
147 1 14.4 8.64 -4.07293506
148 1 17.28 8.64 4.07293506
149 1 17.28 8.64 -4.07293506
150 1 20.16 8.64 4.07293506
151 1 20.16 8.64 -4.07293506
152 1 2.88 11.52 4.07293506
153 1 2.88 11.52 -4.07293506
154 1 5.76 11.52 4.07293506
155 1 5.76 11.52 -4.07293506
156 1 8.64 11.52 4.07293506
157 1 8.64 11.52 -4.07293506
158 1 11.52 11.52 4.07293506
159 1 11.52 11.52 -4.07293506
160 1 14.4 11.52 4.07293506
161 1 14.4 11.52 -4.07293506
162 1 17.28 11.52 4.07293506
163 1 17.28 11.52 -4.07293506
164 1 20.16 11.52 4.07293506
165 1 20.16 11.52 -4.07293506
166 1 2.88 14.4 4.07293506
167 1 2.88 14.4 -4.07293506
168 1 5.76 14.4 4.07293506
169 1 5.76 14.4 -4.07293506
170 1 8.64 14.4 4.07293506
171 1 8.64 14.4 -4.07293506
172 1 11.52 14.4 4.07293506
173 1 11.52 14.4 -4.07293506
174 1 14.4 14.4 4.07293506
175 1 14.4 14.4 -4.07293506
176 1 17.28 14.4 4.07293506
177 1 17.28 14.4 -4.07293506
178 1 20.16 14.4 4.07293506
179 1 20.16 14.4 -4.07293506
180 1 5.76 17.28 4.07293506
181 1 5.76 17.28 -4.07293506
182 1 8.64 17.28 4.07293506
183 1 8.64 17.28 -4.07293506
184 1 11.52 17.28 4.07293506
185 1 11.52 17.28 -4.07293506
186 1 14.4 17.28 4.07293506
187 1 14.4 17.28 -4.07293506
188 1 17.28 17.28 4.07293506
189 1 17.28 17.28 -4.07293506
190 1 8.64 20.16 4.07293506
191 1 8.64 20.16 -4.07293506
192 1 11.52 20.16 4.07293506
193 1 11.52 20.16 -4.07293506
194 1 14.4 20.16 4.07293506
195 1 14.4 20.16 -4.07293506
196 1 7.2 4.32 6.10940259
197 1 7.2 4.32 -6.10940259
198 1 10.08 4.32 6.10940259
199 1 10.08 4.32 -6.10940259
200 1 12.96 4.32 6.10940259
201 1 12.96 4.32 -6.10940259
202 1 15.84 4.32 6.10940259
203 1 15.84 4.32 -6.10940259
204 1 4.32 7.2 6.10940259
205 1 4.32 7.2 -6.10940259
206 1 7.2 7.2 6.10940259
207 1 7.2 7.2 -6.10940259
208 1 10.08 7.2 6.10940259
209 1 10.08 7.2 -6.10940259
210 1 12.96 7.2 6.10940259
211 1 12.96 7.2 -6.10940259
212 1 15.84 7.2 6.10940259
213 1 15.84 7.2 -6.10940259
214 1 18.72 7.2 6.10940259
215 1 18.72 7.2 -6.10940259
216 1 4.32 10.08 6.10940259
217 1 4.32 10.08 -6.10940259
218 1 7.2 10.08 6.10940259
219 1 7.2 10.08 -6.10940259
220 1 10.08 10.08 6.10940259
221 1 10.08 10.08 -6.10940259
222 1 12.96 10.08 6.10940259
223 1 12.96 10.08 -6.10940259
224 1 15.84 10.08 6.10940259
225 1 15.84 10.08 -6.10940259
226 1 18.72 10.08 6.10940259
227 1 18.72 10.08 -6.10940259
228 1 4.32 12.96 6.10940259
229 1 4.32 12.96 -6.10940259
230 1 7.2 12.96 6.10940259
231 1 7.2 12.96 -6.10940259
232 1 10.08 12.96 6.10940259
233 1 10.08 12.96 -6.10940259
234 1 12.96 12.96 6.10940259
235 1 12.96 12.96 -6.10940259
236 1 15.84 12.96 6.10940259
237 1 15.84 12.96 -6.10940259
238 1 18.72 12.96 6.10940259
239 1 18.72 12.96 -6.10940259
240 1 4.32 15.84 6.10940259
241 1 4.32 15.84 -6.10940259
242 1 7.2 15.84 6.10940259
243 1 7.2 15.84 -6.10940259
244 1 10.08 15.84 6.10940259
245 1 10.08 15.84 -6.10940259
246 1 12.96 15.84 6.10940259
247 1 12.96 15.84 -6.10940259
248 1 15.84 15.84 6.10940259
249 1 15.84 15.84 -6.10940259
250 1 18.72 15.84 6.10940259
251 1 18.72 15.84 -6.10940259
252 1 7.2 18.72 6.10940259
253 1 7.2 18.72 -6.10940259
254 1 10.08 18.72 6.10940259
255 1 10.08 18.72 -6.10940259
256 1 12.96 18.72 6.10940259
257 1 12.96 18.72 -6.10940259
258 1 15.84 18.72 6.10940259
259 1 15.84 18.72 -6.10940259
260 1 5.76 5.76 8.14587012
261 1 5.76 5.76 -8.14587012
262 1 8.64 5.76 8.14587012
263 1 8.64 5.76 -8.14587012
264 1 11.52 5.76 8.14587012
265 1 11.52 5.76 -8.14587012
266 1 14.4 5.76 8.14587012
267 1 14.4 5.76 -8.14587012
268 1 17.28 5.76 8.14587012
269 1 17.28 5.76 -8.14587012
270 1 5.76 8.64 8.14587012
271 1 5.76 8.64 -8.14587012
272 1 8.64 8.64 8.14587012
273 1 8.64 8.64 -8.14587012
274 1 11.52 8.64 8.14587012
275 1 11.52 8.64 -8.14587012
276 1 14.4 8.64 8.14587012
277 1 14.4 8.64 -8.14587012
278 1 17.28 8.64 8.14587012
279 1 17.28 8.64 -8.14587012
280 1 5.76 11.52 8.14587012
281 1 5.76 11.52 -8.14587012
282 1 8.64 11.52 8.14587012
283 1 8.64 11.52 -8.14587012
284 1 11.52 11.52 8.14587012
285 1 11.52 11.52 -8.14587012
286 1 14.4 11.52 8.14587012
287 1 14.4 11.52 -8.14587012
288 1 17.28 11.52 8.14587012
289 1 17.28 11.52 -8.14587012
290 1 5.76 14.4 8.14587012
291 1 5.76 14.4 -8.14587012
292 1 8.64 14.4 8.14587012
293 1 8.64 14.4 -8.14587012
294 1 11.52 14.4 8.14587012
295 1 11.52 14.4 -8.14587012
296 1 14.4 14.4 8.14587012
297 1 14.4 14.4 -8.14587012
298 1 17.28 14.4 8.14587012
299 1 17.28 14.4 -8.14587012
300 1 5.76 17.28 8.14587012
301 1 5.76 17.28 -8.14587012
302 1 8.64 17.28 8.14587012
303 1 8.64 17.28 -8.14587012
304 1 11.52 17.28 8.14587012
305 1 11.52 17.28 -8.14587012
306 1 14.4 17.28 8.14587012
307 1 14.4 17.28 -8.14587012
308 1 17.28 17.28 8.14587012
309 1 17.28 17.28 -8.14587012
